32
Lattice="7.2 0.0 0.0 0.0 7.2 0.0 0.0 0.0 7.2" Properties=species:S:1:pos:R:3:momenta:R:3:energies:R:1:forces:R:3 energy=0.43274474192116763 free_energy=0.43274474192116763 stress="0.0009677794448378139 0.001247851780025441 -0.0015449491187756997 0.001247851780025441 0.0016655385724185178 0.00036784460278625536 -0.0015449491187756997 0.00036784460278625536 -0.000716237973882407" pbc="T T T"
Cu      -0.00022240      -0.07640662      -0.06348137       0.12675687      -0.45581545      -0.16295265       0.01906832       0.11459120       0.23443248      -0.21735297
Cu      -0.04340713       1.73163702       1.78924133       0.88173828      -0.13377522      -0.74704438       0.03732730       0.06865687       0.60698782       0.13919144
Cu       1.74593579       0.13649798       1.75863802       0.25756787       1.76672290      -0.12193252       0.03387320       0.38764242      -0.89929483       0.28504406
Cu       1.76155936       1.69836070      -0.08868091      -0.98415882       0.14085991      -0.52940687       0.02381850       0.06861883       0.64588946       0.17359630
Cu      -0.00603238      -0.02495563       3.61306308      -0.03794954      -1.58074844       0.42016825      -0.00527120      -0.08290945       0.20086652       0.16383119
Cu       0.01413359       1.88616524       5.36951459       0.51126235      -0.27076457       0.38976068       0.00360241      -0.13154605      -0.51970111       0.06696591
Cu       1.81400959      -0.05809876       5.34824001       0.03896516       0.59694792      -1.10519199       0.01181081      -0.09940161       0.34242582       0.11710452
Cu       1.79881029       1.85197918       3.54867434      -0.54543945      -0.51336043       0.62657625       0.00492900      -0.00108285      -0.23121709       0.26613462
Cu       0.00824082       3.62902168       0.02073750       0.37952346       0.77427196      -0.59810371       0.01030310      -0.11915122      -0.33785615       0.03265437
Cu       0.01464991       5.45619717       1.79829532       0.32865251       0.27166824      -0.14321468       0.01926424       0.02780728      -0.44191824       0.11529653
Cu       1.72788669       3.57573245       1.77418486      -0.01172902       0.89368916      -2.05193618       0.00940094       0.30010306      -0.22069428       0.16720323
Cu       1.81862879       5.38979572       0.08175913      -0.28481654      -0.16628312       2.39995929       0.02529913      -0.02329270       0.04173787      -0.53304632
Cu      -0.01107383       3.63547619       3.62251840      -0.72765849       0.33185207      -0.20796413       0.00882144       0.07115627       0.09542563      -0.39069402
Cu       0.08972525       5.30696516       5.46700510      -0.05164788      -0.91552153       0.95182217       0.02338067      -0.33275028       0.40367284      -0.43124577
Cu       1.90073730       3.55514767       5.36613104       0.28399035      -1.27603852      -0.23419515       0.02118655      -0.47282386       0.14008712       0.29599746
Cu       1.79012031       5.39898328       3.60621313       0.58522566       0.80880259       0.84986520       0.00741356       0.05142821      -0.03808896      -0.27362416
Cu       3.58589744       0.00746030      -0.05306157       0.12181149      -0.66380728      -0.58371182       0.00260643       0.01514469       0.09280392       0.20258618
Cu       3.66929548       1.74217227       1.80140232       0.48719869       0.18730792       0.07834091       0.01436240      -0.21427116       0.17889476      -0.02234279
Cu       5.46451252      -0.09761854       1.67850748       0.74411076      -1.05825621       0.05774156       0.04569383      -0.68379390       0.25334927       0.88585565
Cu       5.47789514       1.74162623       0.06124229      -0.13864774       0.36164988       0.57118253       0.02201740      -0.38734668       0.49581709      -0.69690377
Cu       3.56770195       0.01736657       3.57746545      -0.46934099      -0.70111506       0.82670632       0.00576122       0.24925357      -0.15354697      -0.03798647
Cu       3.63825412       1.80082008       5.34634953      -0.12182162      -1.05606768       0.83419316       0.00452419       0.01766722       0.01065684       0.13068672
Cu       5.37960994       0.01840428       5.38936381      -0.58932760       1.54328452      -0.36973805       0.00596225       0.23594959       0.01318960      -0.06883432
Cu       5.41958392       1.88031561       3.56826256      -0.58131918      -0.88505408       0.92400938       0.01227487      -0.04869593      -0.52514204       0.05840466
Cu       3.56553444       3.47472091       0.05584124      -1.24824067      -0.84931033       1.25079133      -0.00367937       0.20546140       0.33067024      -0.18650557
Cu       3.51306664       5.42803368       1.78231649      -0.60178838      -0.12689258      -0.61763265       0.01091896       0.44530436       0.08296655       0.11159006
Cu       5.38245290       3.67685861       1.80808740      -0.09792701       0.57444222      -0.35432708      -0.00702077       0.21801509      -0.04273496      -0.18625439
Cu       5.32662061       5.40027937      -0.06637556       0.12864861      -0.02675479      -0.84002868       0.02446099       0.31535421      -0.29021539       0.29701424
Cu       3.60874851       3.65802390       3.54930253      -0.02029091       0.64752035      -1.29622109       0.00553469      -0.07583446      -0.27513528       0.01938853
Cu       3.56815060       5.34357908       5.46421950       0.55764303       1.00301815      -0.24890159       0.02218234      -0.06222627       0.23643247      -0.37407997
Cu       5.41227257       3.64306412       5.39634888       1.26875284       1.10086183       0.12154065       0.01052175      -0.25935125      -0.41036779       0.19625385
Cu       5.35879908       5.44060938       3.66274429      -0.18974407      -0.32333429      -0.09015445       0.00239558       0.20232339      -0.02039321      -0.30592900
