32
Lattice="7.2 0.0 0.0 0.0 7.2 0.0 0.0 0.0 7.2" Properties=species:S:1:pos:R:3:energies:R:1:forces:R:3 energy=-0.21380512262611262 free_energy=-0.21380512262611262 stress="0.00699757543169556 -1.9673444640776579e-07 -4.1449358385682515e-07 -1.9673444640776579e-07 0.006997939006747274 3.840677812057294e-08 -4.1449358385682515e-07 3.840677812057294e-08 0.00699748847456109" pbc="T T T"
Cu      -0.00155639      -0.00327284      -0.00997083      -0.00674309       0.00438376      -0.00722480      -0.01443208
Cu      -0.00119322       1.79639786       1.78849792      -0.00669296       0.00302627       0.00484269       0.00049419
Cu       1.79777391      -0.00664483       1.78765681      -0.00673118       0.01009197       0.01424691       0.00600981
Cu       1.79927540       1.79601525      -0.01073190      -0.00668734      -0.00141266      -0.00052749      -0.00514573
Cu      -0.00123030      -0.00111863       3.58780322      -0.00669696      -0.00070477      -0.01710236       0.00275621
Cu      -0.00021719       1.79588950       5.38868751      -0.00664558      -0.00603305      -0.00543673       0.00264872
Cu       1.79978010      -0.00357257       5.38795322      -0.00671723      -0.01099854      -0.00632195       0.00911427
Cu       1.79958848       1.79568629       3.58845462      -0.00667575      -0.00213851       0.00443740      -0.00682075
Cu      -0.00159568       3.59534212      -0.01073072      -0.00666831      -0.00064487      -0.00026900      -0.00129043
Cu      -0.00213870       5.39558510       1.78910051      -0.00670906       0.00192366      -0.00180139       0.00340620
Cu       1.79987125       3.59676222       1.78856448      -0.00664220      -0.01066659      -0.00392763       0.00634539
Cu       1.79819407       5.39427944      -0.01165882      -0.00674626       0.00075391       0.01053512      -0.00405145
Cu      -0.00063063       3.59617454       3.59054012      -0.00665743       0.00073876      -0.00379383      -0.01832294
Cu      -0.00176558       5.39639856       5.38789030      -0.00672219       0.00739867       0.00693437       0.00782208
Cu       1.79803125       3.59594212       5.38907342      -0.00667883       0.00852602      -0.00123528      -0.00081509
Cu       1.79884603       5.39663054       3.58876817      -0.00667334      -0.00409273      -0.00261605       0.00123817
Cu       3.59825298      -0.00457853      -0.01166533      -0.00676065       0.00016126      -0.00599789       0.00179069
Cu       3.59770102       1.79687262       1.78748618      -0.00666038       0.00194887      -0.00975418       0.00801233
Cu       5.39776692      -0.00249828       1.78765717      -0.00670035       0.00037587      -0.00807099       0.00739806
Cu       5.39810289       1.79459886      -0.01317667      -0.00668457       0.00195525       0.00959450       0.00549892
Cu       3.59888822      -0.00381282       3.58888331      -0.00660799       0.00044089      -0.00201896      -0.01359120
Cu       3.59898761       1.79496420       5.38733222      -0.00664423       0.00023542       0.01028247       0.01006419
Cu       5.39822418      -0.00573065       5.38809450      -0.00665497       0.00800390       0.01035673       0.00371121
Cu       5.39871411       1.79644522       3.58803772      -0.00660922      -0.00090211      -0.00330554       0.00578371
Cu       3.59938562       3.59623338      -0.01143958      -0.00671348       0.00119626      -0.00237531      -0.01101958
Cu       3.59883841       5.39434327       1.78933055      -0.00666076       0.00376347       0.01276456      -0.00297479
Cu       5.39748465       3.59457139       1.78941266      -0.00665190       0.01087167       0.00336499      -0.00276057
Cu       5.39996922       5.39533431      -0.00988975      -0.00676476      -0.00876113       0.00304043      -0.00835918
Cu       3.59929262       3.59631501       3.58987289      -0.00660809      -0.00431527      -0.00247830      -0.00248177
Cu       3.59925471       5.39609119       5.38763273      -0.00670525      -0.00061634      -0.00507728       0.01017905
Cu       5.40043382       3.59598867       5.38815014      -0.00666817      -0.01079423      -0.00009037       0.00594930
Cu       5.39976805       5.39658178       3.58845343      -0.00662261      -0.00371511      -0.00097486      -0.00615694
